 LAMMPS data file

 395 atoms

 1 atom types

 0 200 xlo xhi
 0 200 ylo yhi
 -3.5 3.5 zlo zhi

 Atoms # sphere

1 1 100.52962099395393 75.34807176408987 0 4.998335479632122 0.017055 0 0 0 0
2 1 32.113864896473444 146.8684268351634 0 4.619413659454979 0.017055 0 0 0 0
3 1 0.6248948164711408 134.48620762064286 0 4.590317877505333 0.017055 0 0 0 0
4 1 27.09227978772097 178.47142751675784 0 4.83635562538087 0.017055 0 0 0 0
5 1 180.75675078829732 52.993714391801745 0 5.036498266402579 0.017055 0 0 0 0
6 1 88.57442213257508 22.093014293395328 0 4.856785769003924 0.017055 0 0 0 0
7 1 151.25302422991854 155.60141662388622 0 4.794856687010056 0.017055 0 0 0 0
8 1 91.11079822861637 79.52451497007502 0 4.968319598652686 0.017055 0 0 0 0
9 1 137.71528720380053 51.555797848346884 0 4.605575316082084 0.017055 0 0 0 0
10 1 120.78855019930137 150.92089123815367 0 4.972924034619254 0.017055 0 0 0 0
11 1 192.7276757410595 190.5970938487343 0 4.946787990152818 0.017055 0 0 0 0
12 1 198.50466752397836 41.906127119284264 0 4.542998692790684 0.017055 0 0 0 0
13 1 141.9384172957827 26.713851384415932 0 4.846329061750026 0.017055 0 0 0 0
14 1 128.2197286669126 29.005102397165814 0 4.572961683499131 0.017055 0 0 0 0
15 1 170.77744388850863 3.7415532251992545 0 4.837173478852741 0.017055 0 0 0 0
16 1 23.385515419943033 184.71262338188308 0 4.809961908327871 0.017055 0 0 0 0
17 1 198.24125099221266 171.25718119150673 0 4.559584507110889 0.017055 0 0 0 0
18 1 88.97459390316908 36.988142471127816 0 5.1370577506243515 0.017055 0 0 0 0
19 1 100.68155156412399 165.93674074132736 0 4.51644378262884 0.017055 0 0 0 0
20 1 70.69933796007052 16.641777327707075 0 5.063036125195431 0.017055 0 0 0 0
21 1 167.43944811664068 123.6326581516193 0 4.53884166679433 0.017055 0 0 0 0
22 1 40.12477684192547 197.7289167234037 0 4.79061059648166 0.017055 0 0 0 0
23 1 132.67160918557948 150.82383627216103 0 5.700653189258142 0.017055 0 0 0 0
24 1 153.0226360138568 4.499613591447826 0 4.966001262395877 0.017055 0 0 0 0
25 1 49.752394545385044 1.6595122155636943 0 4.7793736360722505 0.017055 0 0 0 0
26 1 101.28339842322106 144.77996359716514 0 4.652660997127614 0.017055 0 0 0 0
27 1 97.1644951789956 43.18388936884077 0 4.883026176461428 0.017055 0 0 0 0
28 1 192.9993873648778 13.304137991798854 0 4.504333170522031 0.017055 0 0 0 0
29 1 82.42787848593855 0.4804885454846328 0 4.532067484495237 0.017055 0 0 0 0
30 1 10.713725063044421 67.0083022180732 0 4.817858743328938 0.017055 0 0 0 0
31 1 72.21782003623622 172.43226962446204 0 5.751057413409342 0.017055 0 0 0 0
32 1 107.33374675163122 180.44280466363062 0 4.747292982945984 0.017055 0 0 0 0
33 1 105.18363875058236 8.095027658770647 0 5.044367460522953 0.017055 0 0 0 0
34 1 145.7200109380779 64.54868036705545 0 4.533388314646334 0.017055 0 0 0 0
35 1 115.59803377497929 54.34190388211121 0 4.792821637680571 0.017055 0 0 0 0
36 1 169.17615075945497 148.48352632906096 0 4.841087246036491 0.017055 0 0 0 0
37 1 15.559636691666697 153.51989070750858 0 4.856731328509969 0.017055 0 0 0 0
38 1 94.89897445825773 117.67998349915376 0 4.488612905071105 0.017055 0 0 0 0
39 1 178.13362434814354 93.88050569705587 0 4.680716245130529 0.017055 0 0 0 0
40 1 12.705420408471781 196.09621842306683 0 4.51219664442436 0.017055 0 0 0 0
41 1 40.8708143830919 143.76231920987453 0 4.882630950841709 0.017055 0 0 0 0
42 1 60.113684248155266 188.98487903609902 0 4.719845249865459 0.017055 0 0 0 0
43 1 171.40376780961765 30.565113569449494 0 4.852350440629975 0.017055 0 0 0 0
44 1 56.812200452368586 82.46785975312298 0 4.781409949271843 0.017055 0 0 0 0
45 1 32.35112947402689 115.35524527390493 0 4.5944599698968 0.017055 0 0 0 0
46 1 112.57820943994909 71.4030213965761 0 4.832002027179504 0.017055 0 0 0 0
47 1 10.968257801117346 124.38035904987777 0 4.5219510506687595 0.017055 0 0 0 0
48 1 73.22588586588188 99.5206809758289 0 4.698622746248576 0.017055 0 0 0 0
49 1 47.55904356005084 72.21304681094114 0 4.790320975886327 0.017055 0 0 0 0
50 1 138.40109008603105 125.76799427263524 0 5.718297247226408 0.017055 0 0 0 0
51 1 146.35525076587152 117.81152951460189 0 4.613947810273683 0.017055 0 0 0 0
52 1 4.406753422286215 6.812035279735738 0 4.558771210212355 0.017055 0 0 0 0
53 1 119.83247027033627 88.98505511258963 0 4.624940628792181 0.017055 0 0 0 0
54 1 155.77787669866274 103.17771776566423 0 4.589402809814133 0.017055 0 0 0 0
55 1 29.22097599004684 199.8400031195418 0 4.663755118291602 0.017055 0 0 0 0
56 1 100.08022928260021 31.184265571894628 0 4.598519815501783 0.017055 0 0 0 0
57 1 153.0186007510311 44.68847543825305 0 4.870198863708251 0.017055 0 0 0 0
58 1 22.62263244746029 79.5893681940139 0 4.5968441235293716 0.017055 0 0 0 0
59 1 56.91973764616273 164.04058651360992 0 4.6527103101281355 0.017055 0 0 0 0
60 1 182.50132898222193 85.72591689561392 0 5.140177407854717 0.017055 0 0 0 0
61 1 60.91811446017016 124.64534851629418 0 4.700215833751848 0.017055 0 0 0 0
62 1 4.784292306894599 147.49803994755666 0 4.793988604614766 0.017055 0 0 0 0
63 1 92.82184332356104 72.07540961535506 0 4.810498711433962 0.017055 0 0 0 0
64 1 100.7066278920235 52.66165438751642 0 4.48101962643766 0.017055 0 0 0 0
65 1 8.019747216279825 135.03081582101902 0 4.517451083862704 0.017055 0 0 0 0
66 1 108.16895866104443 22.907750903009912 0 4.900342610757613 0.017055 0 0 0 0
67 1 129.00875006921297 79.8042547695942 0 4.838946982651099 0.017055 0 0 0 0
68 1 170.5611930406384 178.00677707203232 0 4.7390253275416825 0.017055 0 0 0 0
69 1 160.03256965135267 135.57296591906925 0 4.9298374168941095 0.017055 0 0 0 0
70 1 136.54111116025894 83.87137994990422 0 4.551523224028821 0.017055 0 0 0 0
71 1 187.3273843874759 34.406702900088106 0 4.708087661612053 0.017055 0 0 0 0
72 1 64.65911311271981 50.444876796337155 0 4.715026086101105 0.017055 0 0 0 0
73 1 160.94718837022492 85.88395630344917 0 4.924364195297402 0.017055 0 0 0 0
74 1 161.1552105596711 52.82466713589636 0 4.861531217599582 0.017055 0 0 0 0
75 1 158.9358399328251 123.6456652504869 0 5.110302128903635 0.017055 0 0 0 0
76 1 189.1566688521629 143.1997299654525 0 4.734261044877319 0.017055 0 0 0 0
77 1 147.31649948670355 32.280472688638724 0 4.922478487501516 0.017055 0 0 0 0
78 1 116.34810815027839 9.979772363050188 0 4.63124835597273 0.017055 0 0 0 0
79 1 25.656507435068875 157.16051080407294 0 5.0961599663430786 0.017055 0 0 0 0
80 1 110.65614322344334 79.25374411986905 0 4.634972250069343 0.017055 0 0 0 0
81 1 140.77169790984107 192.66829803579174 0 4.99111833452815 0.017055 0 0 0 0
82 1 80.01652533026748 146.7902892261195 0 4.771784941478571 0.017055 0 0 0 0
83 1 180.70487205346694 123.20572573870544 0 4.80698244960667 0.017055 0 0 0 0
84 1 20.760103037511044 45.901191678144215 0 5.177889399764586 0.017055 0 0 0 0
85 1 76.32347087618496 114.71102354577431 0 4.854288282029243 0.017055 0 0 0 0
86 1 57.278469289577004 105.53782827553755 0 4.660682392685955 0.017055 0 0 0 0
87 1 142.95278710144987 95.18453910156984 0 4.5297996330016534 0.017055 0 0 0 0
88 1 5.917724867326967 54.29296091363031 0 4.9862099218733285 0.017055 0 0 0 0
89 1 90.81571099941937 139.55938398466748 0 5.126380707411379 0.017055 0 0 0 0
90 1 105.15363632840382 15.3562588766043 0 4.695231755409976 0.017055 0 0 0 0
91 1 7.048797703380728 181.69451841375877 0 4.692687935756782 0.017055 0 0 0 0
92 1 81.22339180340356 17.01520203293566 0 4.777182607377476 0.017055 0 0 0 0
93 1 40.421633122667714 80.4080213233932 0 4.62263347030513 0.017055 0 0 0 0
94 1 42.148613573398336 102.39930798686862 0 6.147036367695232 0.017055 0 0 0 0
95 1 153.83378035161826 116.00819473963793 0 5.355034596775738 0.017055 0 0 0 0
96 1 29.32559363368705 74.41362235818087 0 4.490150931453732 0.017055 0 0 0 0
97 1 135.60883377068546 102.03624442410245 0 4.92563793763534 0.017055 0 0 0 0
98 1 81.76397920381083 188.2595986997286 0 4.493277962125148 0.017055 0 0 0 0
99 1 34.50370187716899 171.04393550950442 0 5.550922340738924 0.017055 0 0 0 0
100 1 34.998765909515214 54.457873767336025 0 4.63909252815292 0.017055 0 0 0 0
101 1 172.672166410979 82.31826718967238 0 5.145440705847848 0.017055 0 0 0 0
102 1 65.4110101804236 62.56314049981853 0 5.640380405581937 0.017055 0 0 0 0
103 1 53.490945361115905 13.887340955307252 0 4.5174987070070625 0.017055 0 0 0 0
104 1 115.99559062638991 193.12491662379097 0 4.421204599043744 0.017055 0 0 0 0
105 1 156.48330655045532 192.71364841401373 0 4.565591560658231 0.017055 0 0 0 0
106 1 176.51535779610623 104.79884616312523 0 4.608408106748125 0.017055 0 0 0 0
107 1 127.1262401108047 192.01541443387742 0 4.7409132889183505 0.017055 0 0 0 0
108 1 188.2915620553536 21.270192270202244 0 5.816207555196628 0.017055 0 0 0 0
109 1 31.62758722347587 67.24314785332683 0 4.658840931967777 0.017055 0 0 0 0
110 1 43.49335916595129 157.80746614386834 0 4.660848839450166 0.017055 0 0 0 0
111 1 194.25716535108825 150.84301798581185 0 4.751288126474424 0.017055 0 0 0 0
112 1 184.37441283516807 161.22946657152374 0 4.7180520165268796 0.017055 0 0 0 0
113 1 199.88343755736673 109.64221044452745 0 4.705802242314223 0.017055 0 0 0 0
114 1 140.07276293748544 155.72284685929242 0 4.813910182599594 0.017055 0 0 0 0
115 1 73.04621246764435 184.86770847188467 0 4.771142630147889 0.017055 0 0 0 0
116 1 198.3014509988896 57.30453417766245 0 4.508559849535299 0.017055 0 0 0 0
117 1 105.48387187836028 107.89836689030108 0 4.622850684890514 0.017055 0 0 0 0
118 1 81.33318865289897 168.93066538796427 0 5.77276762809743 0.017055 0 0 0 0
119 1 56.46414232320598 63.20786926362314 0 4.587606622287882 0.017055 0 0 0 0
120 1 29.530317848438074 91.91894922984261 0 4.886330330381063 0.017055 0 0 0 0
121 1 133.14917069400553 134.1126546278524 0 4.574188153921348 0.017055 0 0 0 0
122 1 167.81380480225414 166.9302712220819 0 4.849783918657481 0.017055 0 0 0 0
123 1 11.72349874891836 83.93722803614139 0 4.589428002192563 0.017055 0 0 0 0
124 1 156.24787481363273 30.61300110507844 0 4.610370385436983 0.017055 0 0 0 0
125 1 120.51014344908873 78.54678328165778 0 4.6334844140087235 0.017055 0 0 0 0
126 1 56.07847147806973 89.44582676162241 0 4.608555296016205 0.017055 0 0 0 0
127 1 48.62511210230957 92.62507905365908 0 4.600978850914045 0.017055 0 0 0 0
128 1 79.07081314186195 121.93888160593042 0 4.865559912777374 0.017055 0 0 0 0
129 1 103.62241594823968 82.64274685342741 0 5.0742988442333505 0.017055 0 0 0 0
130 1 98.27589428597912 153.4549763030488 0 4.5447421449831085 0.017055 0 0 0 0
131 1 49.98742901598217 102.70341734839059 0 4.651046013870759 0.017055 0 0 0 0
132 1 118.29446572283473 109.32120651563946 0 4.948132260025019 0.017055 0 0 0 0
133 1 103.48852185493581 198.13470294071027 0 4.663517664426319 0.017055 0 0 0 0
134 1 177.3375992827394 171.7351885533419 0 4.990454341997257 0.017055 0 0 0 0
135 1 190.68535060970248 2.171727961032758 0 4.8855601930506545 0.017055 0 0 0 0
136 1 15.703027899530582 32.729182881397634 0 4.65094303119158 0.017055 0 0 0 0
137 1 74.07416618836567 107.30357423922266 0 4.544230657944443 0.017055 0 0 0 0
138 1 16.42916384236358 116.50691064162163 0 5.049359687046935 0.017055 0 0 0 0
139 1 114.57770409492554 19.576964125835502 0 4.630718095543162 0.017055 0 0 0 0
140 1 88.63401890782143 8.926543186769607 0 4.81143416028873 0.017055 0 0 0 0
141 1 185.71110301702566 115.2369107832098 0 4.886267063362522 0.017055 0 0 0 0
142 1 128.0662731567104 128.79777300312492 0 4.508450772125329 0.017055 0 0 0 0
143 1 85.59553402616439 118.65118642417303 0 4.649589522198401 0.017055 0 0 0 0
144 1 28.38452471151419 27.307908423952 0 4.713160333371702 0.017055 0 0 0 0
145 1 42.88820367881536 134.08651783781573 0 4.720473545275655 0.017055 0 0 0 0
146 1 125.1166865875307 141.0634606931556 0 4.609289070656979 0.017055 0 0 0 0
147 1 58.30077385605006 149.20012162147532 0 4.492815631949004 0.017055 0 0 0 0
148 1 29.005064587985316 164.24974236514197 0 4.652540962413886 0.017055 0 0 0 0
149 1 113.91145129752329 93.0097989972856 0 4.903404789410162 0.017055 0 0 0 0
150 1 163.55381522285046 189.81462387554637 0 4.532215354360801 0.017055 0 0 0 0
151 1 80.98326756416526 134.67800779677208 0 4.532047532208892 0.017055 0 0 0 0
152 1 170.58254642966057 45.08972918703739 0 4.728006275563324 0.017055 0 0 0 0
153 1 164.36433424468504 93.41401378170133 0 4.746456614337541 0.017055 0 0 0 0
154 1 157.52247317330068 180.75588290324862 0 4.61817714541178 0.017055 0 0 0 0
155 1 149.19178077814195 127.94054023027985 0 4.608154200980674 0.017055 0 0 0 0
156 1 162.22939592826418 35.07808201900394 0 4.599883904546027 0.017055 0 0 0 0
157 1 146.38241467624027 71.9370322686388 0 4.934712682714525 0.017055 0 0 0 0
158 1 83.42231254577308 70.55440895237649 0 4.5288340561989076 0.017055 0 0 0 0
159 1 131.52865853773176 160.8495343987761 0 4.618817797657608 0.017055 0 0 0 0
160 1 169.6031921652508 157.14013012941115 0 4.8780831204634945 0.017055 0 0 0 0
161 1 39.70909910563964 163.77333109667973 0 4.839035062739493 0.017055 0 0 0 0
162 1 123.35337235865808 59.70199035246998 0 4.688544515776034 0.017055 0 0 0 0
163 1 29.48502996604722 100.16242383375351 0 5.264605043175663 0.017055 0 0 0 0
164 1 64.36571070270446 102.97702788029125 0 4.617461055791842 0.017055 0 0 0 0
165 1 142.32009333361333 5.9829282421000585 0 4.5017689269224554 0.017055 0 0 0 0
166 1 183.26902332536372 187.5416048238148 0 5.028079384580617 0.017055 0 0 0 0
167 1 68.98775576838369 123.50795632354266 0 4.436984282774799 0.017055 0 0 0 0
168 1 103.55513706359562 137.20249444108578 0 4.919237501955652 0.017055 0 0 0 0
169 1 96.08816753402903 61.5754576915474 0 4.850707059844409 0.017055 0 0 0 0
170 1 13.008783398352222 175.86660863365717 0 4.399107158386459 0.017055 0 0 0 0
171 1 21.55764464330909 134.8488605741104 0 4.6617831969425065 0.017055 0 0 0 0
172 1 74.32113962748605 66.25330090926343 0 4.740895184179492 0.017055 0 0 0 0
173 1 23.351830638535148 169.0272875220628 0 5.2061255590488535 0.017055 0 0 0 0
174 1 138.510951205764 66.13782298148635 0 5.459619998997418 0.017055 0 0 0 0
175 1 55.3885860449237 72.77278040220489 0 4.566059097524234 0.017055 0 0 0 0
176 1 124.09146258070956 23.02386201465518 0 4.561865439559822 0.017055 0 0 0 0
177 1 155.18471139026445 72.39905838817748 0 4.877118763111478 0.017055 0 0 0 0
178 1 72.5949669958975 41.542175715791615 0 4.630034232305218 0.017055 0 0 0 0
179 1 69.92040707906864 164.538281831125 0 4.79646196216546 0.017055 0 0 0 0
180 1 112.53307954437707 136.00601686399335 0 4.527336752935485 0.017055 0 0 0 0
181 1 129.9174149687812 46.539032713430686 0 4.588125851796308 0.017055 0 0 0 0
182 1 109.24233233321422 173.0828502367803 0 4.884177289378735 0.017055 0 0 0 0
183 1 190.23353998186934 55.26103195184376 0 4.781971822395767 0.017055 0 0 0 0
184 1 10.245269332883396 46.29681540705201 0 4.765837219348044 0.017055 0 0 0 0
185 1 88.05591245750333 193.791507825189 0 5.432760168306156 0.017055 0 0 0 0
186 1 158.7745741081186 14.214635245231563 0 4.700694247370403 0.017055 0 0 0 0
187 1 41.718065664201816 10.760732648425773 0 4.914491463682221 0.017055 0 0 0 0
188 1 58.48276446629416 179.6353558968675 0 4.729744910410156 0.017055 0 0 0 0
189 1 10.698341816773592 110.82795605317182 0 4.385116100142126 0.017055 0 0 0 0
190 1 115.03858088641766 0.3706762291691348 0 4.8337305387762655 0.017055 0 0 0 0
191 1 124.22959261051238 36.523318883534074 0 4.622132254262275 0.017055 0 0 0 0
192 1 122.76682161824772 97.77429178632036 0 4.930500038628855 0.017055 0 0 0 0
193 1 163.8164592741603 198.97856286674022 0 4.64071575548921 0.017055 0 0 0 0
194 1 89.51790740553764 106.16453294126791 0 4.8928428010029466 0.017055 0 0 0 0
195 1 186.73096799290641 98.41403119332955 0 4.597918179429122 0.017055 0 0 0 0
196 1 85.27540819088637 174.8104837352438 0 4.780311979718778 0.017055 0 0 0 0
197 1 28.54568564936298 37.883387326562854 0 5.008830427505811 0.017055 0 0 0 0
198 1 74.05729904504705 78.62247090273263 0 4.833953031190163 0.017055 0 0 0 0
199 1 125.65119500985321 70.54855664797043 0 4.446096138925337 0.017055 0 0 0 0
200 1 190.52011836413135 108.7735247611439 0 4.9070569749161645 0.017055 0 0 0 0
201 1 85.91714680840192 56.86851514104785 0 4.663141550021742 0.017055 0 0 0 0
202 1 197.28931814756254 183.97755765318857 0 4.685273814589017 0.017055 0 0 0 0
203 1 155.909118017926 148.1918081394747 0 4.850970922868431 0.017055 0 0 0 0
204 1 90.22658087387339 48.95994757112706 0 4.892160404329607 0.017055 0 0 0 0
205 1 52.8150480828354 188.7736424463381 0 4.714765972697811 0.017055 0 0 0 0
206 1 14.418474750784497 10.737508678676477 0 5.028193700826759 0.017055 0 0 0 0
207 1 18.82155518454681 102.62465881991415 0 4.945010600851669 0.017055 0 0 0 0
208 1 112.8932168383011 158.22527288839046 0 4.923513815262958 0.017055 0 0 0 0
209 1 167.20628197202075 74.14539372068032 0 4.849943654452267 0.017055 0 0 0 0
210 1 38.842366196754426 31.360804350026598 0 4.551228229790456 0.017055 0 0 0 0
211 1 117.64181384408869 182.23631511219662 0 4.560830648524761 0.017055 0 0 0 0
212 1 37.759341408965156 183.02630145241176 0 4.935680869883022 0.017055 0 0 0 0
213 1 191.95673763443318 131.91710209506152 0 4.509912145096639 0.017055 0 0 0 0
214 1 153.4486384766373 89.63126714876722 0 4.436892187350724 0.017055 0 0 0 0
215 1 112.0599138466589 118.91900317217454 0 6.1426338164268595 0.017055 0 0 0 0
216 1 119.2613997747535 124.2320720718439 0 4.506933022191651 0.017055 0 0 0 0
217 1 184.66106430315943 77.19940862501983 0 4.988854411488822 0.017055 0 0 0 0
218 1 28.52341227555243 131.21691300483923 0 4.544180666925467 0.017055 0 0 0 0
219 1 56.759771760218484 197.71794877585359 0 4.573270868428706 0.017055 0 0 0 0
220 1 24.34826674224948 111.52677614410493 0 4.743072256471654 0.017055 0 0 0 0
221 1 62.352691038053706 16.22454967095237 0 4.902983338427259 0.017055 0 0 0 0
222 1 156.49295667637648 173.2678697861703 0 4.8220920636428195 0.017055 0 0 0 0
223 1 89.57267693827782 87.73949359951422 0 4.878292581297883 0.017055 0 0 0 0
224 1 127.28870488227057 121.35715354747487 0 4.8540235580453395 0.017055 0 0 0 0
225 1 149.3853993786051 50.99203738105581 0 4.496327566051661 0.017055 0 0 0 0
226 1 9.834745834211134 169.5215063223157 0 5.570630247279671 0.017055 0 0 0 0
227 1 53.647318133335375 129.9839477552436 0 4.935635986453806 0.017055 0 0 0 0
228 1 37.666874173217934 16.532001486622505 0 4.418320039031931 0.017055 0 0 0 0
229 1 86.95041927062124 160.45642454294205 0 4.989651842608762 0.017055 0 0 0 0
230 1 90.38774350964968 126.59584225456359 0 4.881814586525291 0.017055 0 0 0 0
231 1 75.37295924066706 0.6480827140528334 0 4.652319557962516 0.017055 0 0 0 0
232 1 135.47912260261228 177.3645886479298 0 4.4941559720291195 0.017055 0 0 0 0
233 1 141.9305887201674 43.783072051155955 0 4.8026513298218685 0.017055 0 0 0 0
234 1 143.23822864322386 144.49653320022747 0 4.533530004305712 0.017055 0 0 0 0
235 1 142.4367924800593 104.85275702292529 0 4.972949214843824 0.017055 0 0 0 0
236 1 138.88470968299038 184.0419608631807 0 4.797504381079614 0.017055 0 0 0 0
237 1 73.3406275891358 57.376741045255756 0 4.785914407084085 0.017055 0 0 0 0
238 1 5.854361138101837 39.90612185255529 0 4.795547615388793 0.017055 0 0 0 0
239 1 100.34188497756634 95.66390952458244 0 4.6490392238002265 0.017055 0 0 0 0
240 1 3.359386995222394 121.84655742692331 0 4.761205255665345 0.017055 0 0 0 0
241 1 38.012818163878904 60.79249334137103 0 4.69205136597176 0.017055 0 0 0 0
242 1 40.2643240897462 124.82753876273296 0 4.820013093683391 0.017055 0 0 0 0
243 1 176.72635954075753 11.362511338892574 0 4.5449557264644795 0.017055 0 0 0 0
244 1 190.46267089872424 64.70863832806015 0 5.392211829340743 0.017055 0 0 0 0
245 1 95.74069979598153 198.35526922963288 0 4.492963834824497 0.017055 0 0 0 0
246 1 106.34650167923974 123.81431154349934 0 5.604593489149033 0.017055 0 0 0 0
247 1 180.71972886026532 134.12668438659523 0 4.397531540677814 0.017055 0 0 0 0
248 1 61.258207487587924 136.39890255934034 0 4.9754566717249205 0.017055 0 0 0 0
249 1 144.44659590061815 169.79323934706684 0 4.850679940489533 0.017055 0 0 0 0
250 1 14.799460615761149 75.08110571174552 0 4.885046284585707 0.017055 0 0 0 0
251 1 42.98170331456714 48.89244436678513 0 4.806815842064097 0.017055 0 0 0 0
252 1 54.099577728873356 173.42130592613518 0 4.5431362118668455 0.017055 0 0 0 0
253 1 6.255332721800755 102.27127813323176 0 5.173715095129523 0.017055 0 0 0 0
254 1 82.4543932181553 93.57421622658666 0 4.569874648341563 0.017055 0 0 0 0
255 1 134.1561288764659 17.4066254252065 0 4.574167926309709 0.017055 0 0 0 0
256 1 21.24326942944279 93.60178505455315 0 4.605781722671584 0.017055 0 0 0 0
257 1 162.3994443403422 110.07003420946842 0 4.656400527110165 0.017055 0 0 0 0
258 1 54.61364236160233 56.36541967147707 0 5.949813619908467 0.017055 0 0 0 0
259 1 130.383192933597 56.64864130278767 0 4.641089513149711 0.017055 0 0 0 0
260 1 22.447990719435182 194.66839500462044 0 4.426899142917564 0.017055 0 0 0 0
261 1 67.79930399390003 28.644263995362536 0 4.796663682543398 0.017055 0 0 0 0
262 1 6.5026020741975685 17.23321756857979 0 5.51469395450274 0.017055 0 0 0 0
263 1 132.1512624949542 2.6070667788390267 0 4.627762804451421 0.017055 0 0 0 0
264 1 164.23755031951572 117.26167295711218 0 4.873502024537421 0.017055 0 0 0 0
265 1 9.102208647017306 189.9148525329431 0 4.623663559128158 0.017055 0 0 0 0
266 1 5.459323549617409 89.07636585922472 0 4.881954779818115 0.017055 0 0 0 0
267 1 80.61670885960905 9.05444883159339 0 5.505104193632576 0.017055 0 0 0 0
268 1 79.60882311138687 156.7986386291962 0 4.61974790199184 0.017055 0 0 0 0
269 1 199.4785972720311 158.13415084969836 0 4.531332957895745 0.017055 0 0 0 0
270 1 185.3586908739582 11.913879663990201 0 4.439998633110605 0.017055 0 0 0 0
271 1 64.05566559250559 199.6562018573366 0 4.753961012495162 0.017055 0 0 0 0
272 1 123.48412914925865 10.133806815116657 0 4.505377130916005 0.017055 0 0 0 0
273 1 138.73416302087134 112.9098117543652 0 5.127103576532973 0.017055 0 0 0 0
274 1 46.82679656027173 194.3192366986317 0 4.700921227375915 0.017055 0 0 0 0
275 1 180.81677599623066 37.80340223255175 0 4.707490834569443 0.017055 0 0 0 0
276 1 182.41975461604108 70.47838945804352 0 4.82701551144267 0.017055 0 0 0 0
277 1 110.04252905523151 31.41377319243199 0 4.757247052305495 0.017055 0 0 0 0
278 1 55.56179140768148 27.944327083200278 0 4.545862123912535 0.017055 0 0 0 0
279 1 135.99460864312033 74.4064557675232 0 5.145161292145132 0.017055 0 0 0 0
280 1 81.83979606837437 35.693354075006 0 4.9088427536972565 0.017055 0 0 0 0
281 1 39.37248106333081 39.673270315817945 0 5.020250001331455 0.017055 0 0 0 0
282 1 116.99654894298874 63.00256856293959 0 4.72015999286312 0.017055 0 0 0 0
283 1 155.308410503122 57.54657220822861 0 4.656214950744323 0.017055 0 0 0 0
284 1 195.84942355817208 95.12771721508864 0 5.139520544968653 0.017055 0 0 0 0
285 1 0.07976420229846326 23.567354441759704 0 4.939371743018283 0.017055 0 0 0 0
286 1 167.36983461824957 10.945689627683265 0 4.856210365729921 0.017055 0 0 0 0
287 1 184.46416960629801 168.7273772988679 0 4.893160834575541 0.017055 0 0 0 0
288 1 187.33979742659 46.91859338688769 0 4.901383880738052 0.017055 0 0 0 0
289 1 25.860062122866395 14.777029435718532 0 4.672771771161778 0.017055 0 0 0 0
290 1 76.99532631385529 51.21471393418199 0 4.726387072460858 0.017055 0 0 0 0
291 1 3.4323054612821977 32.33995539171107 0 4.762719711716447 0.017055 0 0 0 0
292 1 50.372340492302556 36.47584897783051 0 4.589089906980563 0.017055 0 0 0 0
293 1 192.68495701716904 87.08086580913516 0 4.630536370122079 0.017055 0 0 0 0
294 1 188.88818503754823 174.9958448869661 0 4.633129083418365 0.017055 0 0 0 0
295 1 173.04520088749172 142.1601361360007 0 4.722133446951052 0.017055 0 0 0 0
296 1 90.59405819620736 148.4151814393291 0 4.831329919803774 0.017055 0 0 0 0
297 1 14.763750889716675 161.43726285526094 0 4.526707714351163 0.017055 0 0 0 0
298 1 87.20180362283469 64.45868891350148 0 4.6596509992998865 0.017055 0 0 0 0
299 1 44.39984933891762 26.44656335757901 0 4.556182306422069 0.017055 0 0 0 0
300 1 68.19329787756658 139.39257357755804 0 4.682519797050539 0.017055 0 0 0 0
301 1 95.86059903607293 185.61990061576307 0 4.572403109373272 0.017055 0 0 0 0
302 1 174.1573648799765 197.59333996785307 0 4.877786809578423 0.017055 0 0 0 0
303 1 52.34367388969318 47.73202033281328 0 4.889722003956981 0.017055 0 0 0 0
304 1 177.65849989019864 114.2604213517572 0 5.831720469314253 0.017055 0 0 0 0
305 1 141.99395220107698 78.53846238943822 0 4.82732569917773 0.017055 0 0 0 0
306 1 21.175021654332625 59.37084605585005 0 4.920069234428247 0.017055 0 0 0 0
307 1 89.5442351926697 181.15706529754772 0 4.792699361268748 0.017055 0 0 0 0
308 1 164.17698256110253 21.62584119302545 0 4.774450745222701 0.017055 0 0 0 0
309 1 44.198765575083826 57.19997645523847 0 4.548925594293405 0.017055 0 0 0 0
310 1 82.89307942978331 108.46672225467995 0 4.645974122591992 0.017055 0 0 0 0
311 1 132.94169082207117 93.718021856581 0 4.870741438142786 0.017055 0 0 0 0
312 1 113.50535076629939 147.1329884038346 0 4.599922515771011 0.017055 0 0 0 0
313 1 172.38996800734998 185.6241210551201 0 4.733921775015376 0.017055 0 0 0 0
314 1 40.96549585679878 115.21468614672011 0 4.70123823753548 0.017055 0 0 0 0
315 1 126.00201387728418 174.33540780327513 0 4.797056688960112 0.017055 0 0 0 0
316 1 61.68028605322576 23.9911801256778 0 4.992606270927008 0.017055 0 0 0 0
317 1 106.48436020614412 64.76229126797273 0 4.906647561145265 0.017055 0 0 0 0
318 1 46.890947615970646 177.38624861552296 0 4.901345769144293 0.017055 0 0 0 0
319 1 114.75578053782965 167.7347660486812 0 4.547794218855113 0.017055 0 0 0 0
320 1 52.96996133507875 140.47563297779982 0 4.49526801826101 0.017055 0 0 0 0
321 1 182.28184503038773 28.970768471352017 0 4.6988017410519145 0.017055 0 0 0 0
322 1 193.10434305399167 29.02783631060103 0 4.9596719911833675 0.017055 0 0 0 0
323 1 124.90578763512616 166.39978523687597 0 4.7817622831251 0.017055 0 0 0 0
324 1 56.5875450065069 117.6006264449814 0 4.532457670347105 0.017055 0 0 0 0
325 1 194.15477972451356 78.03267870206491 0 4.820839156547928 0.017055 0 0 0 0
326 1 24.235474124659675 52.980164993813844 0 5.876252020951659 0.017055 0 0 0 0
327 1 179.3942150822815 62.714772754166404 0 4.732439846294255 0.017055 0 0 0 0
328 1 37.809076914535126 23.958901352486976 0 5.506327553396064 0.017055 0 0 0 0
329 1 8.398765714016093 156.7404152514962 0 4.911899816242846 0.017055 0 0 0 0
330 1 103.39893584105567 115.43953726213783 0 4.778368437511795 0.017055 0 0 0 0
331 1 76.0456571418419 28.172284578536193 0 4.697479641041178 0.017055 0 0 0 0
332 1 104.91873099329553 160.35058389897296 0 4.727476337380683 0.017055 0 0 0 0
333 1 73.64664051213384 86.91961268229187 0 4.78648025332107 0.017055 0 0 0 0
334 1 15.437860045211323 183.77179898654128 0 4.674789345552894 0.017055 0 0 0 0
335 1 168.73869487003168 66.21849145337967 0 4.559481443186576 0.017055 0 0 0 0
336 1 82.72386149251929 82.24301457549694 0 4.6675084590798726 0.017055 0 0 0 0
337 1 90.42063734629659 169.14885225804954 0 4.770308839466065 0.017055 0 0 0 0
338 1 35.52629425732357 154.84719920559746 0 4.640683662683907 0.017055 0 0 0 0
339 1 21.544154465052003 122.51319677872766 0 4.462220623759056 0.017055 0 0 0 0
340 1 46.188506465340936 84.72916347200078 0 5.20551251164293 0.017055 0 0 0 0
341 1 126.2041689500968 110.34022411986786 0 4.715486595520165 0.017055 0 0 0 0
342 1 120.78337965461628 49.234844498152114 0 5.123009642407235 0.017055 0 0 0 0
343 1 147.39337207413354 195.66165491331395 0 4.657810171869678 0.017055 0 0 0 0
344 1 100.20851743048081 178.18633337628256 0 5.327703048606182 0.017055 0 0 0 0
345 1 127.221007072247 88.790058363203 0 4.794138790997789 0.017055 0 0 0 0
346 1 196.53497071970503 6.779774490541627 0 4.5383844932054425 0.017055 0 0 0 0
347 1 70.771878993381 156.09545387308657 0 5.314549736347598 0.017055 0 0 0 0
348 1 162.48209701846395 152.0897800318957 0 5.04010113758421 0.017055 0 0 0 0
349 1 22.314996678891305 2.458966721222481 0 4.461937300859394 0.017055 0 0 0 0
350 1 1.3725669638498061 195.04267527456778 0 5.321163419312825 0.017055 0 0 0 0
351 1 112.74874758443383 103.60615126246404 0 4.776777962985632 0.017055 0 0 0 0
352 1 96.41622228362513 103.65434409491877 0 4.341585427546084 0.017055 0 0 0 0
353 1 160.43252442952212 78.80058676586759 0 5.097639362809258 0.017055 0 0 0 0
354 1 170.49546105299834 135.06159523677098 0 4.736503025732029 0.017055 0 0 0 0
355 1 75.42405436352453 192.2249349463891 0 4.911538345561519 0.017055 0 0 0 0
356 1 171.50167329709842 97.52708251118008 0 5.152195990360712 0.017055 0 0 0 0
357 1 46.36438681199428 110.51337546582965 0 4.755833892011116 0.017055 0 0 0 0
358 1 172.12341029746875 21.44843745369252 0 4.635076003602871 0.017055 0 0 0 0
359 1 162.0133612090139 62.22743407236413 0 4.541093470860402 0.017055 0 0 0 0
360 1 0.5951581902529313 64.81340490586382 0 4.809210310875597 0.017055 0 0 0 0
361 1 37.55850627800069 95.02127928019883 0 4.900105704261465 0.017055 0 0 0 0
362 1 66.69037609765837 111.51483501798992 0 4.760185894294783 0.017055 0 0 0 0
363 1 47.757584014496956 64.76986046867938 0 4.777874295810277 0.017055 0 0 0 0
364 1 150.77900524113426 108.9006564193075 0 5.4675642985501565 0.017055 0 0 0 0
365 1 181.8628480628759 2.168880174318673 0 4.56617700943852 0.017055 0 0 0 0
366 1 60.98239334321198 94.87101358739312 0 4.768687921142671 0.017055 0 0 0 0
367 1 187.30974809846361 126.25912595308938 0 5.622266111087116 0.017055 0 0 0 0
368 1 64.45727377592999 39.10680835770569 0 4.490167865333714 0.017055 0 0 0 0
369 1 14.481773887060541 91.48698794833166 0 4.6586779901999815 0.017055 0 0 0 0
370 1 168.36352633985763 55.61445776220731 0 4.880231538507398 0.017055 0 0 0 0
371 1 14.466549973343007 138.67058961027357 0 4.762013623468786 0.017055 0 0 0 0
372 1 36.270600771143734 108.66728308064751 0 5.846232528827828 0.017055 0 0 0 0
373 1 33.146899155884086 123.4272587666519 0 4.74825728142122 0.017055 0 0 0 0
374 1 73.60731393720476 8.686714424200574 0 4.609742571239866 0.017055 0 0 0 0
375 1 95.13948391645573 14.767256888874556 0 4.580845580818396 0.017055 0 0 0 0